VARIABLES = X Y Z
ZONE N =4, E =2, DATAPACKING = POINT, ZONETYPE = FETRIANGLE
-1.11022e-16  0.5  5
0  5  5
-1.11022e-16  0.5  0
0  5  0
1  3  4
1  4  2
VARIABLES = X Y Z
ZONE N =18, E =16, DATAPACKING = POINT, ZONETYPE = FETRIANGLE
-1.11022e-16  0.5  5
0  5  5
0.012536  0.38874  5
0.0495156  0.283058  5
0.109084  0.188255  5
0.188255  0.109084  5
0.283058  0.0495156  5
0.38874  0.012536  5
0.5  -1.11022e-16  5
4.5  -1.11022e-16  5
5  0.5  5
4.98746  0.38874  5
4.95048  0.283058  5
4.89092  0.188255  5
4.81174  0.109084  5
4.71694  0.0495156  5
4.61126  0.012536  5
5  5  5
9  7  8
1  3  4
1  4  5
1  5  6
1  6  7
1  7  9
14  16  15
14  17  16
14  10  17
13  10  14
11  9  10
11  13  12
11  1  9
11  10  13
18  2  1
18  1  11
VARIABLES = X Y Z
ZONE N =18, E =16, DATAPACKING = POINT, ZONETYPE = FETRIANGLE
-1.11022e-16  0.5  0
0.00694286  0.416966  0.00694286
0.0275786  0.336238  0.0275786
0.0613342  0.260058  0.0613342
0.107272  0.190541  0.107272
0.164117  0.129618  0.164117
0.230289  0.0789819  0.230289
0.329822  0.0298515  0.329822
0.413612  0.00751942  0.413612
0.5  -1.11022e-16  0.5
0.5  -1.11022e-16  5
-1.11022e-16  0.5  5
0.012536  0.38874  5
0.0495156  0.283058  5
0.109084  0.188255  5
0.188255  0.109084  5
0.283058  0.0495156  5
0.38874  0.012536  5
12  1  2
13  2  3
13  12  2
14  3  4
14  13  3
15  4  5
15  5  6
15  14  4
16  6  7
16  15  6
17  7  8
17  16  7
18  8  9
18  17  8
11  9  10
11  18  9
VARIABLES = X Y Z
ZONE N =4, E =2, DATAPACKING = POINT, ZONETYPE = FETRIANGLE
0  5  0
5  5  0
0  5  5
5  5  5
4  2  1
4  1  3
VARIABLES = X Y Z
ZONE N =4, E =2, DATAPACKING = POINT, ZONETYPE = FETRIANGLE
-1.11022e-16  0.5  0
0  5  0
5  0.5  -1.11022e-16
5  5  0
4  2  1
4  1  3
VARIABLES = X Y Z
ZONE N =4, E =2, DATAPACKING = POINT, ZONETYPE = FETRIANGLE
0.5  -1.11022e-16  5
4.5  -1.11022e-16  5
4.5  -1.11022e-16  0.5
0.5  -1.11022e-16  0.5
2  3  4
2  4  1
VARIABLES = X Y Z
ZONE N =4, E =2, DATAPACKING = POINT, ZONETYPE = FETRIANGLE
5  0.5  5
5  5  5
5  0.5  -1.11022e-16
5  5  0
1  3  4
1  4  2
VARIABLES = X Y Z
ZONE N =16, E =14, DATAPACKING = POINT, ZONETYPE = FETRIANGLE
4.5  -1.11022e-16  0.5
4.65796  0.0256064  0.342042
4.78672  0.0903771  0.213279
4.8825  0.17799  0.117496
4.94143  0.265191  0.058565
4.97861  0.355303  0.021395
4.99462  0.426865  0.00537766
5  0.5  -1.11022e-16
4.5  -1.11022e-16  5
5  0.5  5
4.98746  0.38874  5
4.95048  0.283058  5
4.89092  0.188255  5
4.81174  0.109084  5
4.71694  0.0495156  5
4.61126  0.012536  5
10  8  7
11  7  6
11  10  7
12  6  5
12  11  6
13  5  4
13  12  5
14  4  3
14  13  4
15  3  2
15  14  3
16  2  1
16  15  2
9  16  1
VARIABLES = X Y Z
ZONE N =18, E =16, DATAPACKING = POINT, ZONETYPE = FETRIANGLE
-1.11022e-16  0.5  0
0.00694286  0.416966  0.00694286
0.0275786  0.336238  0.0275786
0.0613342  0.260058  0.0613342
0.107272  0.190541  0.107272
0.164117  0.129618  0.164117
0.230289  0.0789819  0.230289
0.329822  0.0298515  0.329822
0.413612  0.00751942  0.413612
0.5  -1.11022e-16  0.5
5  0.5  -1.11022e-16
4.5  -1.11022e-16  0.5
4.65796  0.0256064  0.342042
4.78672  0.0903771  0.213279
4.8825  0.17799  0.117496
4.94143  0.265191  0.058565
4.97861  0.355303  0.021395
4.99462  0.426865  0.00537766
12  10  9
13  8  7
13  9  8
13  12  9
14  7  6
14  13  7
15  6  5
15  14  6
16  4  3
16  5  4
16  15  5
17  3  2
17  16  3
18  2  1
18  17  2
11  18  1
